t 0 /NodeList/1/$ns3::Ipv4L3Protocol/Tx(1) ns3::Ipv4Header (tos 0x0 DSCP Default ECN Not-ECT ttl 64 id 0 protocol 6 offset (bytes) 0 flags [none] length: 40 10.0.1.1 > 10.0.2.2) ns3::TcpHeader (49153 > 50000 [ SYN ] Seq=0 Ack=0 Win=65535)
r 0.0450336 /NodeList/0/$ns3::Ipv4L3Protocol/Rx(1) ns3::Ipv4Header (tos 0x0 DSCP Default ECN Not-ECT ttl 64 id 0 protocol 6 offset (bytes) 0 flags [none] length: 40 10.0.1.1 > 10.0.2.2) ns3::TcpHeader (49153 > 50000 [ SYN ] Seq=0 Ack=0 Win=65535)
t 0.0450336 /NodeList/0/$ns3::Ipv4L3Protocol/Tx(2) ns3::Ipv4Header (tos 0x0 DSCP Default ECN Not-ECT ttl 63 id 0 protocol 6 offset (bytes) 0 flags [none] length: 40 10.0.1.1 > 10.0.2.2) ns3::TcpHeader (49153 > 50000 [ SYN ] Seq=0 Ack=0 Win=65535)
r 0.0452116 /NodeList/2/$ns3::Ipv4L3Protocol/Rx(1) ns3::Ipv4Header (tos 0x0 DSCP Default ECN Not-ECT ttl 63 id 0 protocol 6 offset (bytes) 0 flags [none] length: 40 10.0.1.1 > 10.0.2.2) ns3::TcpHeader (49153 > 50000 [ SYN ] Seq=0 Ack=0 Win=65535)
t 0.0452116 /NodeList/2/$ns3::Ipv4L3Protocol/Tx(1) ns3::Ipv4Header (tos 0x0 DSCP Default ECN Not-ECT ttl 64 id 0 protocol 6 offset (bytes) 0 flags [none] length: 40 10.0.2.2 > 10.0.1.1) ns3::TcpHeader (50000 > 49153 [ SYN  ACK ] Seq=0 Ack=1 Win=65535)
r 0.0453896 /NodeList/0/$ns3::Ipv4L3Protocol/Rx(2) ns3::Ipv4Header (tos 0x0 DSCP Default ECN Not-ECT ttl 64 id 0 protocol 6 offset (bytes) 0 flags [none] length: 40 10.0.2.2 > 10.0.1.1) ns3::TcpHeader (50000 > 49153 [ SYN  ACK ] Seq=0 Ack=1 Win=65535)
t 0.0453896 /NodeList/0/$ns3::Ipv4L3Protocol/Tx(1) ns3::Ipv4Header (tos 0x0 DSCP Default ECN Not-ECT ttl 63 id 0 protocol 6 offset (bytes) 0 flags [none] length: 40 10.0.2.2 > 10.0.1.1) ns3::TcpHeader (50000 > 49153 [ SYN  ACK ] Seq=0 Ack=1 Win=65535)
r 0.0904232 /NodeList/1/$ns3::Ipv4L3Protocol/Rx(1) ns3::Ipv4Header (tos 0x0 DSCP Default ECN Not-ECT ttl 63 id 0 protocol 6 offset (bytes) 0 flags [none] length: 40 10.0.2.2 > 10.0.1.1) ns3::TcpHeader (50000 > 49153 [ SYN  ACK ] Seq=0 Ack=1 Win=65535)
t 0.0904232 /NodeList/1/$ns3::Ipv4L3Protocol/Tx(1) ns3::Ipv4Header (tos 0x0 DSCP Default ECN Not-ECT ttl 64 id 1 protocol 6 offset (bytes) 0 flags [none] length: 40 10.0.1.1 > 10.0.2.2) ns3::TcpHeader (49153 > 50000 [ ACK ] Seq=1 Ack=1 Win=65535)
t 0.0904232 /NodeList/1/$ns3::Ipv4L3Protocol/Tx(1) ns3::Ipv4Header (tos 0x0 DSCP Default ECN Not-ECT ttl 64 id 2 protocol 6 offset (bytes) 0 flags [none] length: 400 10.0.1.1 > 10.0.2.2) ns3::TcpHeader (49153 > 50000 [ ACK ] Seq=1 Ack=1 Win=65535) Payload (size=360)
r 0.135457 /NodeList/0/$ns3::Ipv4L3Protocol/Rx(1) ns3::Ipv4Header (tos 0x0 DSCP Default ECN Not-ECT ttl 64 id 1 protocol 6 offset (bytes) 0 flags [none] length: 40 10.0.1.1 > 10.0.2.2) ns3::TcpHeader (49153 > 50000 [ ACK ] Seq=1 Ack=1 Win=65535)
t 0.135457 /NodeList/0/$ns3::Ipv4L3Protocol/Tx(2) ns3::Ipv4Header (tos 0x0 DSCP Default ECN Not-ECT ttl 63 id 1 protocol 6 offset (bytes) 0 flags [none] length: 40 10.0.1.1 > 10.0.2.2) ns3::TcpHeader (49153 > 50000 [ ACK ] Seq=1 Ack=1 Win=65535)
r 0.135635 /NodeList/2/$ns3::Ipv4L3Protocol/Rx(1) ns3::Ipv4Header (tos 0x0 DSCP Default ECN Not-ECT ttl 63 id 1 protocol 6 offset (bytes) 0 flags [none] length: 40 10.0.1.1 > 10.0.2.2) ns3::TcpHeader (49153 > 50000 [ ACK ] Seq=1 Ack=1 Win=65535)
r 0.135778 /NodeList/0/$ns3::Ipv4L3Protocol/Rx(1) ns3::Ipv4Header (tos 0x0 DSCP Default ECN Not-ECT ttl 64 id 2 protocol 6 offset (bytes) 0 flags [none] length: 400 10.0.1.1 > 10.0.2.2) ns3::TcpHeader (49153 > 50000 [ ACK ] Seq=1 Ack=1 Win=65535) Payload (size=360)
t 0.135778 /NodeList/0/$ns3::Ipv4L3Protocol/Tx(2) ns3::Ipv4Header (tos 0x0 DSCP Default ECN Not-ECT ttl 63 id 2 protocol 6 offset (bytes) 0 flags [none] length: 400 10.0.1.1 > 10.0.2.2) ns3::TcpHeader (49153 > 50000 [ ACK ] Seq=1 Ack=1 Win=65535) Payload (size=360)
r 0.137396 /NodeList/2/$ns3::Ipv4L3Protocol/Rx(1) ns3::Ipv4Header (tos 0x0 DSCP Default ECN Not-ECT ttl 63 id 2 protocol 6 offset (bytes) 0 flags [none] length: 400 10.0.1.1 > 10.0.2.2) ns3::TcpHeader (49153 > 50000 [ ACK ] Seq=1 Ack=1 Win=65535) Payload (size=360)
t 0.137396 /NodeList/2/$ns3::Ipv4L3Protocol/Tx(1) ns3::Ipv4Header (tos 0x0 DSCP Default ECN Not-ECT ttl 64 id 1 protocol 6 offset (bytes) 0 flags [none] length: 40 10.0.2.2 > 10.0.1.1) ns3::TcpHeader (50000 > 49153 [ ACK ] Seq=1 Ack=361 Win=65535)
r 0.137574 /NodeList/0/$ns3::Ipv4L3Protocol/Rx(2) ns3::Ipv4Header (tos 0x0 DSCP Default ECN Not-ECT ttl 64 id 1 protocol 6 offset (bytes) 0 flags [none] length: 40 10.0.2.2 > 10.0.1.1) ns3::TcpHeader (50000 > 49153 [ ACK ] Seq=1 Ack=361 Win=65535)
t 0.137574 /NodeList/0/$ns3::Ipv4L3Protocol/Tx(1) ns3::Ipv4Header (tos 0x0 DSCP Default ECN Not-ECT ttl 63 id 1 protocol 6 offset (bytes) 0 flags [none] length: 40 10.0.2.2 > 10.0.1.1) ns3::TcpHeader (50000 > 49153 [ ACK ] Seq=1 Ack=361 Win=65535)
r 0.182608 /NodeList/1/$ns3::Ipv4L3Protocol/Rx(1) ns3::Ipv4Header (tos 0x0 DSCP Default ECN Not-ECT ttl 63 id 1 protocol 6 offset (bytes) 0 flags [none] length: 40 10.0.2.2 > 10.0.1.1) ns3::TcpHeader (50000 > 49153 [ ACK ] Seq=1 Ack=361 Win=65535)
t 0.182608 /NodeList/1/$ns3::Ipv4L3Protocol/Tx(1) ns3::Ipv4Header (tos 0x0 DSCP Default ECN Not-ECT ttl 64 id 3 protocol 6 offset (bytes) 0 flags [none] length: 400 10.0.1.1 > 10.0.2.2) ns3::TcpHeader (49153 > 50000 [ ACK ] Seq=361 Ack=1 Win=65535) Payload (size=360)
t 0.182608 /NodeList/1/$ns3::Ipv4L3Protocol/Tx(1) ns3::Ipv4Header (tos 0x0 DSCP Default ECN Not-ECT ttl 64 id 4 protocol 6 offset (bytes) 0 flags [none] length: 400 10.0.1.1 > 10.0.2.2) ns3::TcpHeader (49153 > 50000 [ ACK ] Seq=721 Ack=1 Win=65535) Payload (size=360)
r 0.22793 /NodeList/0/$ns3::Ipv4L3Protocol/Rx(1) ns3::Ipv4Header (tos 0x0 DSCP Default ECN Not-ECT ttl 64 id 3 protocol 6 offset (bytes) 0 flags [none] length: 400 10.0.1.1 > 10.0.2.2) ns3::TcpHeader (49153 > 50000 [ ACK ] Seq=361 Ack=1 Win=65535) Payload (size=360)
t 0.22793 /NodeList/0/$ns3::Ipv4L3Protocol/Tx(2) ns3::Ipv4Header (tos 0x0 DSCP Default ECN Not-ECT ttl 63 id 3 protocol 6 offset (bytes) 0 flags [none] length: 400 10.0.1.1 > 10.0.2.2) ns3::TcpHeader (49153 > 50000 [ ACK ] Seq=361 Ack=1 Win=65535) Payload (size=360)
r 0.228251 /NodeList/0/$ns3::Ipv4L3Protocol/Rx(1) ns3::Ipv4Header (tos 0x0 DSCP Default ECN Not-ECT ttl 64 id 4 protocol 6 offset (bytes) 0 flags [none] length: 400 10.0.1.1 > 10.0.2.2) ns3::TcpHeader (49153 > 50000 [ ACK ] Seq=721 Ack=1 Win=65535) Payload (size=360)
t 0.228251 /NodeList/0/$ns3::Ipv4L3Protocol/Tx(2) ns3::Ipv4Header (tos 0x0 DSCP Default ECN Not-ECT ttl 63 id 4 protocol 6 offset (bytes) 0 flags [none] length: 400 10.0.1.1 > 10.0.2.2) ns3::TcpHeader (49153 > 50000 [ ACK ] Seq=721 Ack=1 Win=65535) Payload (size=360)
r 0.229548 /NodeList/2/$ns3::Ipv4L3Protocol/Rx(1) ns3::Ipv4Header (tos 0x0 DSCP Default ECN Not-ECT ttl 63 id 3 protocol 6 offset (bytes) 0 flags [none] length: 400 10.0.1.1 > 10.0.2.2) ns3::TcpHeader (49153 > 50000 [ ACK ] Seq=361 Ack=1 Win=65535) Payload (size=360)
r 0.231156 /NodeList/2/$ns3::Ipv4L3Protocol/Rx(1) ns3::Ipv4Header (tos 0x0 DSCP Default ECN Not-ECT ttl 63 id 4 protocol 6 offset (bytes) 0 flags [none] length: 400 10.0.1.1 > 10.0.2.2) ns3::TcpHeader (49153 > 50000 [ ACK ] Seq=721 Ack=1 Win=65535) Payload (size=360)
t 0.231156 /NodeList/2/$ns3::Ipv4L3Protocol/Tx(1) ns3::Ipv4Header (tos 0x0 DSCP Default ECN Not-ECT ttl 64 id 2 protocol 6 offset (bytes) 0 flags [none] length: 40 10.0.2.2 > 10.0.1.1) ns3::TcpHeader (50000 > 49153 [ ACK ] Seq=1 Ack=1081 Win=65535)
r 0.231334 /NodeList/0/$ns3::Ipv4L3Protocol/Rx(2) ns3::Ipv4Header (tos 0x0 DSCP Default ECN Not-ECT ttl 64 id 2 protocol 6 offset (bytes) 0 flags [none] length: 40 10.0.2.2 > 10.0.1.1) ns3::TcpHeader (50000 > 49153 [ ACK ] Seq=1 Ack=1081 Win=65535)
t 0.231334 /NodeList/0/$ns3::Ipv4L3Protocol/Tx(1) ns3::Ipv4Header (tos 0x0 DSCP Default ECN Not-ECT ttl 63 id 2 protocol 6 offset (bytes) 0 flags [none] length: 40 10.0.2.2 > 10.0.1.1) ns3::TcpHeader (50000 > 49153 [ ACK ] Seq=1 Ack=1081 Win=65535)
r 0.276367 /NodeList/1/$ns3::Ipv4L3Protocol/Rx(1) ns3::Ipv4Header (tos 0x0 DSCP Default ECN Not-ECT ttl 63 id 2 protocol 6 offset (bytes) 0 flags [none] length: 40 10.0.2.2 > 10.0.1.1) ns3::TcpHeader (50000 > 49153 [ ACK ] Seq=1 Ack=1081 Win=65535)
t 0.276367 /NodeList/1/$ns3::Ipv4L3Protocol/Tx(1) ns3::Ipv4Header (tos 0x0 DSCP Default ECN Not-ECT ttl 64 id 5 protocol 6 offset (bytes) 0 flags [none] length: 400 10.0.1.1 > 10.0.2.2) ns3::TcpHeader (49153 > 50000 [ ACK ] Seq=1081 Ack=1 Win=65535) Payload (size=360)
t 0.276367 /NodeList/1/$ns3::Ipv4L3Protocol/Tx(1) ns3::Ipv4Header (tos 0x0 DSCP Default ECN Not-ECT ttl 64 id 6 protocol 6 offset (bytes) 0 flags [none] length: 400 10.0.1.1 > 10.0.2.2) ns3::TcpHeader (49153 > 50000 [ ACK ] Seq=1441 Ack=1 Win=65535) Payload (size=360)
t 0.276367 /NodeList/1/$ns3::Ipv4L3Protocol/Tx(1) ns3::Ipv4Header (tos 0x0 DSCP Default ECN Not-ECT ttl 64 id 7 protocol 6 offset (bytes) 0 flags [none] length: 400 10.0.1.1 > 10.0.2.2) ns3::TcpHeader (49153 > 50000 [ ACK ] Seq=1801 Ack=1 Win=65535) Payload (size=360)
r 0.321689 /NodeList/0/$ns3::Ipv4L3Protocol/Rx(1) ns3::Ipv4Header (tos 0x0 DSCP Default ECN Not-ECT ttl 64 id 5 protocol 6 offset (bytes) 0 flags [none] length: 400 10.0.1.1 > 10.0.2.2) ns3::TcpHeader (49153 > 50000 [ ACK ] Seq=1081 Ack=1 Win=65535) Payload (size=360)
t 0.321689 /NodeList/0/$ns3::Ipv4L3Protocol/Tx(2) ns3::Ipv4Header (tos 0x0 DSCP Default ECN Not-ECT ttl 63 id 5 protocol 6 offset (bytes) 0 flags [none] length: 400 10.0.1.1 > 10.0.2.2) ns3::TcpHeader (49153 > 50000 [ ACK ] Seq=1081 Ack=1 Win=65535) Payload (size=360)
r 0.32201 /NodeList/0/$ns3::Ipv4L3Protocol/Rx(1) ns3::Ipv4Header (tos 0x0 DSCP Default ECN Not-ECT ttl 64 id 6 protocol 6 offset (bytes) 0 flags [none] length: 400 10.0.1.1 > 10.0.2.2) ns3::TcpHeader (49153 > 50000 [ ACK ] Seq=1441 Ack=1 Win=65535) Payload (size=360)
t 0.32201 /NodeList/0/$ns3::Ipv4L3Protocol/Tx(2) ns3::Ipv4Header (tos 0x0 DSCP Default ECN Not-ECT ttl 63 id 6 protocol 6 offset (bytes) 0 flags [none] length: 400 10.0.1.1 > 10.0.2.2) ns3::TcpHeader (49153 > 50000 [ ACK ] Seq=1441 Ack=1 Win=65535) Payload (size=360)
r 0.322332 /NodeList/0/$ns3::Ipv4L3Protocol/Rx(1) ns3::Ipv4Header (tos 0x0 DSCP Default ECN Not-ECT ttl 64 id 7 protocol 6 offset (bytes) 0 flags [none] length: 400 10.0.1.1 > 10.0.2.2) ns3::TcpHeader (49153 > 50000 [ ACK ] Seq=1801 Ack=1 Win=65535) Payload (size=360)
t 0.322332 /NodeList/0/$ns3::Ipv4L3Protocol/Tx(2) ns3::Ipv4Header (tos 0x0 DSCP Default ECN Not-ECT ttl 63 id 7 protocol 6 offset (bytes) 0 flags [none] length: 400 10.0.1.1 > 10.0.2.2) ns3::TcpHeader (49153 > 50000 [ ACK ] Seq=1801 Ack=1 Win=65535) Payload (size=360)
r 0.323307 /NodeList/2/$ns3::Ipv4L3Protocol/Rx(1) ns3::Ipv4Header (tos 0x0 DSCP Default ECN Not-ECT ttl 63 id 5 protocol 6 offset (bytes) 0 flags [none] length: 400 10.0.1.1 > 10.0.2.2) ns3::TcpHeader (49153 > 50000 [ ACK ] Seq=1081 Ack=1 Win=65535) Payload (size=360)
r 0.324915 /NodeList/2/$ns3::Ipv4L3Protocol/Rx(1) ns3::Ipv4Header (tos 0x0 DSCP Default ECN Not-ECT ttl 63 id 6 protocol 6 offset (bytes) 0 flags [none] length: 400 10.0.1.1 > 10.0.2.2) ns3::TcpHeader (49153 > 50000 [ ACK ] Seq=1441 Ack=1 Win=65535) Payload (size=360)
t 0.324915 /NodeList/2/$ns3::Ipv4L3Protocol/Tx(1) ns3::Ipv4Header (tos 0x0 DSCP Default ECN Not-ECT ttl 64 id 3 protocol 6 offset (bytes) 0 flags [none] length: 40 10.0.2.2 > 10.0.1.1) ns3::TcpHeader (50000 > 49153 [ ACK ] Seq=1 Ack=1801 Win=65535)
r 0.325093 /NodeList/0/$ns3::Ipv4L3Protocol/Rx(2) ns3::Ipv4Header (tos 0x0 DSCP Default ECN Not-ECT ttl 64 id 3 protocol 6 offset (bytes) 0 flags [none] length: 40 10.0.2.2 > 10.0.1.1) ns3::TcpHeader (50000 > 49153 [ ACK ] Seq=1 Ack=1801 Win=65535)
t 0.325093 /NodeList/0/$ns3::Ipv4L3Protocol/Tx(1) ns3::Ipv4Header (tos 0x0 DSCP Default ECN Not-ECT ttl 63 id 3 protocol 6 offset (bytes) 0 flags [none] length: 40 10.0.2.2 > 10.0.1.1) ns3::TcpHeader (50000 > 49153 [ ACK ] Seq=1 Ack=1801 Win=65535)
r 0.326523 /NodeList/2/$ns3::Ipv4L3Protocol/Rx(1) ns3::Ipv4Header (tos 0x0 DSCP Default ECN Not-ECT ttl 63 id 7 protocol 6 offset (bytes) 0 flags [none] length: 400 10.0.1.1 > 10.0.2.2) ns3::TcpHeader (49153 > 50000 [ ACK ] Seq=1801 Ack=1 Win=65535) Payload (size=360)
r 0.370126 /NodeList/1/$ns3::Ipv4L3Protocol/Rx(1) ns3::Ipv4Header (tos 0x0 DSCP Default ECN Not-ECT ttl 63 id 3 protocol 6 offset (bytes) 0 flags [none] length: 40 10.0.2.2 > 10.0.1.1) ns3::TcpHeader (50000 > 49153 [ ACK ] Seq=1 Ack=1801 Win=65535)
t 0.370126 /NodeList/1/$ns3::Ipv4L3Protocol/Tx(1) ns3::Ipv4Header (tos 0x0 DSCP Default ECN Not-ECT ttl 64 id 8 protocol 6 offset (bytes) 0 flags [none] length: 400 10.0.1.1 > 10.0.2.2) ns3::TcpHeader (49153 > 50000 [ ACK ] Seq=2161 Ack=1 Win=65535) Payload (size=360)
t 0.370126 /NodeList/1/$ns3::Ipv4L3Protocol/Tx(1) ns3::Ipv4Header (tos 0x0 DSCP Default ECN Not-ECT ttl 64 id 9 protocol 6 offset (bytes) 0 flags [none] length: 400 10.0.1.1 > 10.0.2.2) ns3::TcpHeader (49153 > 50000 [ ACK ] Seq=2521 Ack=1 Win=65535) Payload (size=360)
t 0.370126 /NodeList/1/$ns3::Ipv4L3Protocol/Tx(1) ns3::Ipv4Header (tos 0x0 DSCP Default ECN Not-ECT ttl 64 id 10 protocol 6 offset (bytes) 0 flags [none] length: 400 10.0.1.1 > 10.0.2.2) ns3::TcpHeader (49153 > 50000 [ ACK ] Seq=2881 Ack=1 Win=65535) Payload (size=360)
r 0.415448 /NodeList/0/$ns3::Ipv4L3Protocol/Rx(1) ns3::Ipv4Header (tos 0x0 DSCP Default ECN Not-ECT ttl 64 id 8 protocol 6 offset (bytes) 0 flags [none] length: 400 10.0.1.1 > 10.0.2.2) ns3::TcpHeader (49153 > 50000 [ ACK ] Seq=2161 Ack=1 Win=65535) Payload (size=360)
t 0.415448 /NodeList/0/$ns3::Ipv4L3Protocol/Tx(2) ns3::Ipv4Header (tos 0x0 DSCP Default ECN Not-ECT ttl 63 id 8 protocol 6 offset (bytes) 0 flags [none] length: 400 10.0.1.1 > 10.0.2.2) ns3::TcpHeader (49153 > 50000 [ ACK ] Seq=2161 Ack=1 Win=65535) Payload (size=360)
r 0.41577 /NodeList/0/$ns3::Ipv4L3Protocol/Rx(1) ns3::Ipv4Header (tos 0x0 DSCP Default ECN Not-ECT ttl 64 id 9 protocol 6 offset (bytes) 0 flags [none] length: 400 10.0.1.1 > 10.0.2.2) ns3::TcpHeader (49153 > 50000 [ ACK ] Seq=2521 Ack=1 Win=65535) Payload (size=360)
t 0.41577 /NodeList/0/$ns3::Ipv4L3Protocol/Tx(2) ns3::Ipv4Header (tos 0x0 DSCP Default ECN Not-ECT ttl 63 id 9 protocol 6 offset (bytes) 0 flags [none] length: 400 10.0.1.1 > 10.0.2.2) ns3::TcpHeader (49153 > 50000 [ ACK ] Seq=2521 Ack=1 Win=65535) Payload (size=360)
r 0.416091 /NodeList/0/$ns3::Ipv4L3Protocol/Rx(1) ns3::Ipv4Header (tos 0x0 DSCP Default ECN Not-ECT ttl 64 id 10 protocol 6 offset (bytes) 0 flags [none] length: 400 10.0.1.1 > 10.0.2.2) ns3::TcpHeader (49153 > 50000 [ ACK ] Seq=2881 Ack=1 Win=65535) Payload (size=360)
t 0.416091 /NodeList/0/$ns3::Ipv4L3Protocol/Tx(2) ns3::Ipv4Header (tos 0x0 DSCP Default ECN Not-ECT ttl 63 id 10 protocol 6 offset (bytes) 0 flags [none] length: 400 10.0.1.1 > 10.0.2.2) ns3::TcpHeader (49153 > 50000 [ ACK ] Seq=2881 Ack=1 Win=65535) Payload (size=360)
r 0.417066 /NodeList/2/$ns3::Ipv4L3Protocol/Rx(1) ns3::Ipv4Header (tos 0x0 DSCP Default ECN Not-ECT ttl 63 id 8 protocol 6 offset (bytes) 0 flags [none] length: 400 10.0.1.1 > 10.0.2.2) ns3::TcpHeader (49153 > 50000 [ ACK ] Seq=2161 Ack=1 Win=65535) Payload (size=360)
t 0.417066 /NodeList/2/$ns3::Ipv4L3Protocol/Tx(1) ns3::Ipv4Header (tos 0x0 DSCP Default ECN Not-ECT ttl 64 id 4 protocol 6 offset (bytes) 0 flags [none] length: 40 10.0.2.2 > 10.0.1.1) ns3::TcpHeader (50000 > 49153 [ ACK ] Seq=1 Ack=2521 Win=65535)
r 0.417244 /NodeList/0/$ns3::Ipv4L3Protocol/Rx(2) ns3::Ipv4Header (tos 0x0 DSCP Default ECN Not-ECT ttl 64 id 4 protocol 6 offset (bytes) 0 flags [none] length: 40 10.0.2.2 > 10.0.1.1) ns3::TcpHeader (50000 > 49153 [ ACK ] Seq=1 Ack=2521 Win=65535)
t 0.417244 /NodeList/0/$ns3::Ipv4L3Protocol/Tx(1) ns3::Ipv4Header (tos 0x0 DSCP Default ECN Not-ECT ttl 63 id 4 protocol 6 offset (bytes) 0 flags [none] length: 40 10.0.2.2 > 10.0.1.1) ns3::TcpHeader (50000 > 49153 [ ACK ] Seq=1 Ack=2521 Win=65535)
r 0.418674 /NodeList/2/$ns3::Ipv4L3Protocol/Rx(1) ns3::Ipv4Header (tos 0x0 DSCP Default ECN Not-ECT ttl 63 id 9 protocol 6 offset (bytes) 0 flags [none] length: 400 10.0.1.1 > 10.0.2.2) ns3::TcpHeader (49153 > 50000 [ ACK ] Seq=2521 Ack=1 Win=65535) Payload (size=360)
r 0.420282 /NodeList/2/$ns3::Ipv4L3Protocol/Rx(1) ns3::Ipv4Header (tos 0x0 DSCP Default ECN Not-ECT ttl 63 id 10 protocol 6 offset (bytes) 0 flags [none] length: 400 10.0.1.1 > 10.0.2.2) ns3::TcpHeader (49153 > 50000 [ ACK ] Seq=2881 Ack=1 Win=65535) Payload (size=360)
t 0.420282 /NodeList/2/$ns3::Ipv4L3Protocol/Tx(1) ns3::Ipv4Header (tos 0x0 DSCP Default ECN Not-ECT ttl 64 id 5 protocol 6 offset (bytes) 0 flags [none] length: 40 10.0.2.2 > 10.0.1.1) ns3::TcpHeader (50000 > 49153 [ ACK ] Seq=1 Ack=3241 Win=65535)
r 0.42046 /NodeList/0/$ns3::Ipv4L3Protocol/Rx(2) ns3::Ipv4Header (tos 0x0 DSCP Default ECN Not-ECT ttl 64 id 5 protocol 6 offset (bytes) 0 flags [none] length: 40 10.0.2.2 > 10.0.1.1) ns3::TcpHeader (50000 > 49153 [ ACK ] Seq=1 Ack=3241 Win=65535)
t 0.42046 /NodeList/0/$ns3::Ipv4L3Protocol/Tx(1) ns3::Ipv4Header (tos 0x0 DSCP Default ECN Not-ECT ttl 63 id 5 protocol 6 offset (bytes) 0 flags [none] length: 40 10.0.2.2 > 10.0.1.1) ns3::TcpHeader (50000 > 49153 [ ACK ] Seq=1 Ack=3241 Win=65535)
r 0.462278 /NodeList/1/$ns3::Ipv4L3Protocol/Rx(1) ns3::Ipv4Header (tos 0x0 DSCP Default ECN Not-ECT ttl 63 id 4 protocol 6 offset (bytes) 0 flags [none] length: 40 10.0.2.2 > 10.0.1.1) ns3::TcpHeader (50000 > 49153 [ ACK ] Seq=1 Ack=2521 Win=65535)
t 0.462278 /NodeList/1/$ns3::Ipv4L3Protocol/Tx(1) ns3::Ipv4Header (tos 0x0 DSCP Default ECN Not-ECT ttl 64 id 11 protocol 6 offset (bytes) 0 flags [none] length: 400 10.0.1.1 > 10.0.2.2) ns3::TcpHeader (49153 > 50000 [ ACK ] Seq=3241 Ack=1 Win=65535) Payload (size=360)
t 0.462278 /NodeList/1/$ns3::Ipv4L3Protocol/Tx(1) ns3::Ipv4Header (tos 0x0 DSCP Default ECN Not-ECT ttl 64 id 12 protocol 6 offset (bytes) 0 flags [none] length: 400 10.0.1.1 > 10.0.2.2) ns3::TcpHeader (49153 > 50000 [ ACK ] Seq=3601 Ack=1 Win=65535) Payload (size=360)
t 0.462278 /NodeList/1/$ns3::Ipv4L3Protocol/Tx(1) ns3::Ipv4Header (tos 0x0 DSCP Default ECN Not-ECT ttl 64 id 13 protocol 6 offset (bytes) 0 flags [none] length: 400 10.0.1.1 > 10.0.2.2) ns3::TcpHeader (49153 > 50000 [ ACK ] Seq=3961 Ack=1 Win=65535) Payload (size=360)
r 0.465494 /NodeList/1/$ns3::Ipv4L3Protocol/Rx(1) ns3::Ipv4Header (tos 0x0 DSCP Default ECN Not-ECT ttl 63 id 5 protocol 6 offset (bytes) 0 flags [none] length: 40 10.0.2.2 > 10.0.1.1) ns3::TcpHeader (50000 > 49153 [ ACK ] Seq=1 Ack=3241 Win=65535)
t 0.465494 /NodeList/1/$ns3::Ipv4L3Protocol/Tx(1) ns3::Ipv4Header (tos 0x0 DSCP Default ECN Not-ECT ttl 64 id 14 protocol 6 offset (bytes) 0 flags [none] length: 400 10.0.1.1 > 10.0.2.2) ns3::TcpHeader (49153 > 50000 [ ACK ] Seq=4321 Ack=1 Win=65535) Payload (size=360)
t 0.465494 /NodeList/1/$ns3::Ipv4L3Protocol/Tx(1) ns3::Ipv4Header (tos 0x0 DSCP Default ECN Not-ECT ttl 64 id 15 protocol 6 offset (bytes) 0 flags [none] length: 400 10.0.1.1 > 10.0.2.2) ns3::TcpHeader (49153 > 50000 [ ACK ] Seq=4681 Ack=1 Win=65535) Payload (size=360)
t 0.465494 /NodeList/1/$ns3::Ipv4L3Protocol/Tx(1) ns3::Ipv4Header (tos 0x0 DSCP Default ECN Not-ECT ttl 64 id 16 protocol 6 offset (bytes) 0 flags [none] length: 400 10.0.1.1 > 10.0.2.2) ns3::TcpHeader (49153 > 50000 [ ACK ] Seq=5041 Ack=1 Win=65535) Payload (size=360)
r 0.507599 /NodeList/0/$ns3::Ipv4L3Protocol/Rx(1) ns3::Ipv4Header (tos 0x0 DSCP Default ECN Not-ECT ttl 64 id 11 protocol 6 offset (bytes) 0 flags [none] length: 400 10.0.1.1 > 10.0.2.2) ns3::TcpHeader (49153 > 50000 [ ACK ] Seq=3241 Ack=1 Win=65535) Payload (size=360)
t 0.507599 /NodeList/0/$ns3::Ipv4L3Protocol/Tx(2) ns3::Ipv4Header (tos 0x0 DSCP Default ECN Not-ECT ttl 63 id 11 protocol 6 offset (bytes) 0 flags [none] length: 400 10.0.1.1 > 10.0.2.2) ns3::TcpHeader (49153 > 50000 [ ACK ] Seq=3241 Ack=1 Win=65535) Payload (size=360)
r 0.507921 /NodeList/0/$ns3::Ipv4L3Protocol/Rx(1) ns3::Ipv4Header (tos 0x0 DSCP Default ECN Not-ECT ttl 64 id 12 protocol 6 offset (bytes) 0 flags [none] length: 400 10.0.1.1 > 10.0.2.2) ns3::TcpHeader (49153 > 50000 [ ACK ] Seq=3601 Ack=1 Win=65535) Payload (size=360)
t 0.507921 /NodeList/0/$ns3::Ipv4L3Protocol/Tx(2) ns3::Ipv4Header (tos 0x0 DSCP Default ECN Not-ECT ttl 63 id 12 protocol 6 offset (bytes) 0 flags [none] length: 400 10.0.1.1 > 10.0.2.2) ns3::TcpHeader (49153 > 50000 [ ACK ] Seq=3601 Ack=1 Win=65535) Payload (size=360)
r 0.508242 /NodeList/0/$ns3::Ipv4L3Protocol/Rx(1) ns3::Ipv4Header (tos 0x0 DSCP Default ECN Not-ECT ttl 64 id 13 protocol 6 offset (bytes) 0 flags [none] length: 400 10.0.1.1 > 10.0.2.2) ns3::TcpHeader (49153 > 50000 [ ACK ] Seq=3961 Ack=1 Win=65535) Payload (size=360)
t 0.508242 /NodeList/0/$ns3::Ipv4L3Protocol/Tx(2) ns3::Ipv4Header (tos 0x0 DSCP Default ECN Not-ECT ttl 63 id 13 protocol 6 offset (bytes) 0 flags [none] length: 400 10.0.1.1 > 10.0.2.2) ns3::TcpHeader (49153 > 50000 [ ACK ] Seq=3961 Ack=1 Win=65535) Payload (size=360)
r 0.509217 /NodeList/2/$ns3::Ipv4L3Protocol/Rx(1) ns3::Ipv4Header (tos 0x0 DSCP Default ECN Not-ECT ttl 63 id 11 protocol 6 offset (bytes) 0 flags [none] length: 400 10.0.1.1 > 10.0.2.2) ns3::TcpHeader (49153 > 50000 [ ACK ] Seq=3241 Ack=1 Win=65535) Payload (size=360)
r 0.510815 /NodeList/0/$ns3::Ipv4L3Protocol/Rx(1) ns3::Ipv4Header (tos 0x0 DSCP Default ECN Not-ECT ttl 64 id 14 protocol 6 offset (bytes) 0 flags [none] length: 400 10.0.1.1 > 10.0.2.2) ns3::TcpHeader (49153 > 50000 [ ACK ] Seq=4321 Ack=1 Win=65535) Payload (size=360)
t 0.510815 /NodeList/0/$ns3::Ipv4L3Protocol/Tx(2) ns3::Ipv4Header (tos 0x0 DSCP Default ECN Not-ECT ttl 63 id 14 protocol 6 offset (bytes) 0 flags [none] length: 400 10.0.1.1 > 10.0.2.2) ns3::TcpHeader (49153 > 50000 [ ACK ] Seq=4321 Ack=1 Win=65535) Payload (size=360)
r 0.510825 /NodeList/2/$ns3::Ipv4L3Protocol/Rx(1) ns3::Ipv4Header (tos 0x0 DSCP Default ECN Not-ECT ttl 63 id 12 protocol 6 offset (bytes) 0 flags [none] length: 400 10.0.1.1 > 10.0.2.2) ns3::TcpHeader (49153 > 50000 [ ACK ] Seq=3601 Ack=1 Win=65535) Payload (size=360)
t 0.510825 /NodeList/2/$ns3::Ipv4L3Protocol/Tx(1) ns3::Ipv4Header (tos 0x0 DSCP Default ECN Not-ECT ttl 64 id 6 protocol 6 offset (bytes) 0 flags [none] length: 40 10.0.2.2 > 10.0.1.1) ns3::TcpHeader (50000 > 49153 [ ACK ] Seq=1 Ack=3961 Win=65535)
r 0.511003 /NodeList/0/$ns3::Ipv4L3Protocol/Rx(2) ns3::Ipv4Header (tos 0x0 DSCP Default ECN Not-ECT ttl 64 id 6 protocol 6 offset (bytes) 0 flags [none] length: 40 10.0.2.2 > 10.0.1.1) ns3::TcpHeader (50000 > 49153 [ ACK ] Seq=1 Ack=3961 Win=65535)
t 0.511003 /NodeList/0/$ns3::Ipv4L3Protocol/Tx(1) ns3::Ipv4Header (tos 0x0 DSCP Default ECN Not-ECT ttl 63 id 6 protocol 6 offset (bytes) 0 flags [none] length: 40 10.0.2.2 > 10.0.1.1) ns3::TcpHeader (50000 > 49153 [ ACK ] Seq=1 Ack=3961 Win=65535)
r 0.511137 /NodeList/0/$ns3::Ipv4L3Protocol/Rx(1) ns3::Ipv4Header (tos 0x0 DSCP Default ECN Not-ECT ttl 64 id 15 protocol 6 offset (bytes) 0 flags [none] length: 400 10.0.1.1 > 10.0.2.2) ns3::TcpHeader (49153 > 50000 [ ACK ] Seq=4681 Ack=1 Win=65535) Payload (size=360)
t 0.511137 /NodeList/0/$ns3::Ipv4L3Protocol/Tx(2) ns3::Ipv4Header (tos 0x0 DSCP Default ECN Not-ECT ttl 63 id 15 protocol 6 offset (bytes) 0 flags [none] length: 400 10.0.1.1 > 10.0.2.2) ns3::TcpHeader (49153 > 50000 [ ACK ] Seq=4681 Ack=1 Win=65535) Payload (size=360)
r 0.511458 /NodeList/0/$ns3::Ipv4L3Protocol/Rx(1) ns3::Ipv4Header (tos 0x0 DSCP Default ECN Not-ECT ttl 64 id 16 protocol 6 offset (bytes) 0 flags [none] length: 400 10.0.1.1 > 10.0.2.2) ns3::TcpHeader (49153 > 50000 [ ACK ] Seq=5041 Ack=1 Win=65535) Payload (size=360)
t 0.511458 /NodeList/0/$ns3::Ipv4L3Protocol/Tx(2) ns3::Ipv4Header (tos 0x0 DSCP Default ECN Not-ECT ttl 63 id 16 protocol 6 offset (bytes) 0 flags [none] length: 400 10.0.1.1 > 10.0.2.2) ns3::TcpHeader (49153 > 50000 [ ACK ] Seq=5041 Ack=1 Win=65535) Payload (size=360)
r 0.512433 /NodeList/2/$ns3::Ipv4L3Protocol/Rx(1) ns3::Ipv4Header (tos 0x0 DSCP Default ECN Not-ECT ttl 63 id 13 protocol 6 offset (bytes) 0 flags [none] length: 400 10.0.1.1 > 10.0.2.2) ns3::TcpHeader (49153 > 50000 [ ACK ] Seq=3961 Ack=1 Win=65535) Payload (size=360)
r 0.514041 /NodeList/2/$ns3::Ipv4L3Protocol/Rx(1) ns3::Ipv4Header (tos 0x0 DSCP Default ECN Not-ECT ttl 63 id 14 protocol 6 offset (bytes) 0 flags [none] length: 400 10.0.1.1 > 10.0.2.2) ns3::TcpHeader (49153 > 50000 [ ACK ] Seq=4321 Ack=1 Win=65535) Payload (size=360)
t 0.514041 /NodeList/2/$ns3::Ipv4L3Protocol/Tx(1) ns3::Ipv4Header (tos 0x0 DSCP Default ECN Not-ECT ttl 64 id 7 protocol 6 offset (bytes) 0 flags [none] length: 40 10.0.2.2 > 10.0.1.1) ns3::TcpHeader (50000 > 49153 [ ACK ] Seq=1 Ack=4681 Win=65535)
r 0.514219 /NodeList/0/$ns3::Ipv4L3Protocol/Rx(2) ns3::Ipv4Header (tos 0x0 DSCP Default ECN Not-ECT ttl 64 id 7 protocol 6 offset (bytes) 0 flags [none] length: 40 10.0.2.2 > 10.0.1.1) ns3::TcpHeader (50000 > 49153 [ ACK ] Seq=1 Ack=4681 Win=65535)
t 0.514219 /NodeList/0/$ns3::Ipv4L3Protocol/Tx(1) ns3::Ipv4Header (tos 0x0 DSCP Default ECN Not-ECT ttl 63 id 7 protocol 6 offset (bytes) 0 flags [none] length: 40 10.0.2.2 > 10.0.1.1) ns3::TcpHeader (50000 > 49153 [ ACK ] Seq=1 Ack=4681 Win=65535)
r 0.515649 /NodeList/2/$ns3::Ipv4L3Protocol/Rx(1) ns3::Ipv4Header (tos 0x0 DSCP Default ECN Not-ECT ttl 63 id 15 protocol 6 offset (bytes) 0 flags [none] length: 400 10.0.1.1 > 10.0.2.2) ns3::TcpHeader (49153 > 50000 [ ACK ] Seq=4681 Ack=1 Win=65535) Payload (size=360)
r 0.517257 /NodeList/2/$ns3::Ipv4L3Protocol/Rx(1) ns3::Ipv4Header (tos 0x0 DSCP Default ECN Not-ECT ttl 63 id 16 protocol 6 offset (bytes) 0 flags [none] length: 400 10.0.1.1 > 10.0.2.2) ns3::TcpHeader (49153 > 50000 [ ACK ] Seq=5041 Ack=1 Win=65535) Payload (size=360)
t 0.517257 /NodeList/2/$ns3::Ipv4L3Protocol/Tx(1) ns3::Ipv4Header (tos 0x0 DSCP Default ECN Not-ECT ttl 64 id 8 protocol 6 offset (bytes) 0 flags [none] length: 40 10.0.2.2 > 10.0.1.1) ns3::TcpHeader (50000 > 49153 [ ACK ] Seq=1 Ack=5401 Win=65535)
r 0.517435 /NodeList/0/$ns3::Ipv4L3Protocol/Rx(2) ns3::Ipv4Header (tos 0x0 DSCP Default ECN Not-ECT ttl 64 id 8 protocol 6 offset (bytes) 0 flags [none] length: 40 10.0.2.2 > 10.0.1.1) ns3::TcpHeader (50000 > 49153 [ ACK ] Seq=1 Ack=5401 Win=65535)
t 0.517435 /NodeList/0/$ns3::Ipv4L3Protocol/Tx(1) ns3::Ipv4Header (tos 0x0 DSCP Default ECN Not-ECT ttl 63 id 8 protocol 6 offset (bytes) 0 flags [none] length: 40 10.0.2.2 > 10.0.1.1) ns3::TcpHeader (50000 > 49153 [ ACK ] Seq=1 Ack=5401 Win=65535)
r 0.556037 /NodeList/1/$ns3::Ipv4L3Protocol/Rx(1) ns3::Ipv4Header (tos 0x0 DSCP Default ECN Not-ECT ttl 63 id 6 protocol 6 offset (bytes) 0 flags [none] length: 40 10.0.2.2 > 10.0.1.1) ns3::TcpHeader (50000 > 49153 [ ACK ] Seq=1 Ack=3961 Win=65535)
t 0.556037 /NodeList/1/$ns3::Ipv4L3Protocol/Tx(1) ns3::Ipv4Header (tos 0x0 DSCP Default ECN Not-ECT ttl 64 id 17 protocol 6 offset (bytes) 0 flags [none] length: 400 10.0.1.1 > 10.0.2.2) ns3::TcpHeader (49153 > 50000 [ ACK ] Seq=5401 Ack=1 Win=65535) Payload (size=360)
t 0.556037 /NodeList/1/$ns3::Ipv4L3Protocol/Tx(1) ns3::Ipv4Header (tos 0x0 DSCP Default ECN Not-ECT ttl 64 id 18 protocol 6 offset (bytes) 0 flags [none] length: 400 10.0.1.1 > 10.0.2.2) ns3::TcpHeader (49153 > 50000 [ ACK ] Seq=5761 Ack=1 Win=65535) Payload (size=360)
t 0.556037 /NodeList/1/$ns3::Ipv4L3Protocol/Tx(1) ns3::Ipv4Header (tos 0x0 DSCP Default ECN Not-ECT ttl 64 id 19 protocol 6 offset (bytes) 0 flags [none] length: 400 10.0.1.1 > 10.0.2.2) ns3::TcpHeader (49153 > 50000 [ ACK ] Seq=6121 Ack=1 Win=65535) Payload (size=360)
r 0.559253 /NodeList/1/$ns3::Ipv4L3Protocol/Rx(1) ns3::Ipv4Header (tos 0x0 DSCP Default ECN Not-ECT ttl 63 id 7 protocol 6 offset (bytes) 0 flags [none] length: 40 10.0.2.2 > 10.0.1.1) ns3::TcpHeader (50000 > 49153 [ ACK ] Seq=1 Ack=4681 Win=65535)
t 0.559253 /NodeList/1/$ns3::Ipv4L3Protocol/Tx(1) ns3::Ipv4Header (tos 0x0 DSCP Default ECN Not-ECT ttl 64 id 20 protocol 6 offset (bytes) 0 flags [none] length: 400 10.0.1.1 > 10.0.2.2) ns3::TcpHeader (49153 > 50000 [ ACK ] Seq=6481 Ack=1 Win=65535) Payload (size=360)
t 0.559253 /NodeList/1/$ns3::Ipv4L3Protocol/Tx(1) ns3::Ipv4Header (tos 0x0 DSCP Default ECN Not-ECT ttl 64 id 21 protocol 6 offset (bytes) 0 flags [none] length: 400 10.0.1.1 > 10.0.2.2) ns3::TcpHeader (49153 > 50000 [ ACK ] Seq=6841 Ack=1 Win=65535) Payload (size=360)
t 0.559253 /NodeList/1/$ns3::Ipv4L3Protocol/Tx(1) ns3::Ipv4Header (tos 0x0 DSCP Default ECN Not-ECT ttl 64 id 22 protocol 6 offset (bytes) 0 flags [none] length: 400 10.0.1.1 > 10.0.2.2) ns3::TcpHeader (49153 > 50000 [ ACK ] Seq=7201 Ack=1 Win=65535) Payload (size=360)
r 0.562469 /NodeList/1/$ns3::Ipv4L3Protocol/Rx(1) ns3::Ipv4Header (tos 0x0 DSCP Default ECN Not-ECT ttl 63 id 8 protocol 6 offset (bytes) 0 flags [none] length: 40 10.0.2.2 > 10.0.1.1) ns3::TcpHeader (50000 > 49153 [ ACK ] Seq=1 Ack=5401 Win=65535)
t 0.562469 /NodeList/1/$ns3::Ipv4L3Protocol/Tx(1) ns3::Ipv4Header (tos 0x0 DSCP Default ECN Not-ECT ttl 64 id 23 protocol 6 offset (bytes) 0 flags [none] length: 400 10.0.1.1 > 10.0.2.2) ns3::TcpHeader (49153 > 50000 [ ACK ] Seq=7561 Ack=1 Win=65535) Payload (size=360)
t 0.562469 /NodeList/1/$ns3::Ipv4L3Protocol/Tx(1) ns3::Ipv4Header (tos 0x0 DSCP Default ECN Not-ECT ttl 64 id 24 protocol 6 offset (bytes) 0 flags [none] length: 400 10.0.1.1 > 10.0.2.2) ns3::TcpHeader (49153 > 50000 [ ACK ] Seq=7921 Ack=1 Win=65535) Payload (size=360)
t 0.562469 /NodeList/1/$ns3::Ipv4L3Protocol/Tx(1) ns3::Ipv4Header (tos 0x0 DSCP Default ECN Not-ECT ttl 64 id 25 protocol 6 offset (bytes) 0 flags [none] length: 400 10.0.1.1 > 10.0.2.2) ns3::TcpHeader (49153 > 50000 [ ACK ] Seq=8281 Ack=1 Win=65535) Payload (size=360)
r 0.601358 /NodeList/0/$ns3::Ipv4L3Protocol/Rx(1) ns3::Ipv4Header (tos 0x0 DSCP Default ECN Not-ECT ttl 64 id 17 protocol 6 offset (bytes) 0 flags [none] length: 400 10.0.1.1 > 10.0.2.2) ns3::TcpHeader (49153 > 50000 [ ACK ] Seq=5401 Ack=1 Win=65535) Payload (size=360)